============================== echo of input deck ==============================
echo

start molecule

title "CH4 | Equil.Geom+ freq | B3LYP/6-31G(d,p)"
charge 0

print low

geometry units angstroms print xyz autosym
C     -1.915401    0.916999    0.000000
H     -0.823202    0.916997    0.000001
H     -2.279466    1.624639   -0.748066
H     -2.279468    1.211023    0.986866
H     -2.279469   -0.084664   -0.238801
end

basis
  * library 6-31G**
end

dft
  xc b3lyp
  mult 1
end

task dft optimize
task dft freq
================================================================================

         Total DFT energy =      -40.524014283810
@ Step       Energy      Delta E   Gmax     Grms     Xrms     Xmax   Walltime
@ ---- ---------------- -------- -------- -------- -------- -------- --------
@    0     -40.52401428  0.0D+00  0.00021  0.00013  0.00000  0.00000      1.3
         Total DFT energy =      -40.524014503258
         Total DFT energy =    -40.524014503258
@    1     -40.52401450 -2.2D-07  0.00001  0.00000  0.00032  0.00061      1.5
@    1     -40.52401450 -2.2D-07  0.00001  0.00000  0.00032  0.00061      1.5

 Output coordinates in angstroms (scale by  1.889725989 to convert to a.u.)

  No.       Tag          Charge          X              Y              Z
 ---- ---------------- ---------- -------------- -------------- --------------
    1 C                    6.0000    -0.00000010     0.00000055     0.00000022
    2 H                    1.0000     1.09187491    -0.00000112     0.00000119
    3 H                    1.0000    -0.36395636     0.70743004    -0.74784501
    4 H                    1.0000    -0.36395831     0.29393602     0.98657362
    5 H                    1.0000    -0.36396064    -1.00136600    -0.23873002

         Total DFT energy =      -40.524013944002
 Zero-Point correction to Energy  =   28.238 kcal/mol  (  0.045000 au)
 Thermal correction to Energy     =   30.036 kcal/mol  (  0.047865 au)
 Thermal correction to Enthalpy   =   30.628 kcal/mol  (  0.048809 au)
 Total Entropy                    =   49.389 cal/mol-K
   - Translational                =   34.246 cal/mol-K (mol. weight =  16.0313)
   - Rotational                   =   15.061 cal/mol-K (symmetry #  =        1)
   - Vibrational                  =    0.082 cal/mol-K
   - Translational                  =    2.979 cal/mol-K
   - Rotational                     =    2.979 cal/mol-K
   - Vibrational                    =    0.482 cal/mol-K
 P.Frequency       -0.00        0.00        0.00        0.00        0.00        0.00
 P.Frequency     1356.05     1356.05     1356.05     1578.52     1578.52     3047.36
 P.Frequency     3163.25     3163.26     3163.26

 Normal Eigenvalue ||           Projected Infra Red Intensities
  Mode   [cm**-1]  || [atomic units] [(debye/angs)**2] [(KM/mol)] [arbitrary]
 ------ ---------- || -------------- ----------------- ---------- -----------
    1       -0.000 ||    0.000000           0.000         0.000       0.000
    2        0.000 ||    0.000000           0.000         0.000       0.000
    3        0.000 ||    0.000000           0.000         0.000       0.000
    4        0.000 ||    0.000000           0.000         0.000       0.000
    5        0.000 ||    0.000000           0.000         0.000       0.000
    6        0.000 ||    0.000000           0.000         0.000       0.000
    7     1356.051 ||    0.014474           0.334        14.110      17.893
    8     1356.053 ||    0.014474           0.334        14.110      17.893
    9     1356.054 ||    0.014474           0.334        14.110      17.893
   10     1578.517 ||    0.000000           0.000         0.000       0.000
   11     1578.517 ||    0.000000           0.000         0.000       0.000
   12     3047.355 ||    0.000000           0.000         0.000       0.000
   13     3163.246 ||    0.025972           0.599        25.319      32.107
   14     3163.256 ||    0.025972           0.599        25.319      32.107
   15     3163.261 ||    0.025972           0.599        25.319      32.107
 ----------------------------------------------------------------------------

 Total times  cpu:        3.8s     wall:        5.1s
