============================== echo of input deck ==============================
echo

start molecule

title "HF+ | Equilibrium Geometry | CCSD/daug-cc-pVDZ"
charge +1

print low

geometry units angstroms print xyz
SYMMETRY c1
F     -7.495632    1.264070   -0.005417
H     -8.290988    1.365470   -0.494508
end

basis
  * library d-aug-cc-pvdz
end

scf
  print low
  doublet
  uhf
end

tce
  freeze core
  ccsd
end

task tce optimize
================================================================================

         Total SCF energy =    -99.507501726389
 CCSD total energy / hartree       =       -99.686155027583169
         Total SCF energy =    -99.507964818590
 CCSD total energy / hartree       =       -99.686857917457246
         Total SCF energy =    -99.506930790353
 CCSD total energy / hartree       =       -99.685342287046964
@ Step       Energy      Delta E   Gmax     Grms     Xrms     Xmax   Walltime
@ ---- ---------------- -------- -------- -------- -------- -------- --------
@    0     -99.68615503  0.0D+00  0.05359  0.05359  0.00000  0.00000      4.6
         Total SCF energy =    -99.507572808344
 CCSD total energy / hartree       =       -99.688903357668593
         Total SCF energy =    -99.508567840070
 CCSD total energy / hartree       =       -99.689191173940131
         Total SCF energy =    -99.508332185145
 CCSD total energy / hartree       =       -99.689174283353097
         Total SCF energy =    -99.508739122049
 CCSD total energy / hartree       =       -99.689140787225611
@    1     -99.68919117 -3.0D-03  0.00118  0.00118  0.03478  0.05102     10.1
         Total SCF energy =    -99.508527342394
 CCSD total energy / hartree       =       -99.689193026533630
         Total SCF energy =    -99.508520012575
 CCSD total energy / hartree       =       -99.689193098489184
         Total SCF energy =    -99.508270349934
 CCSD total energy / hartree       =       -99.689161528136609
         Total SCF energy =    -99.508706216478
 CCSD total energy / hartree       =       -99.689158282031187
@    2     -99.68919310 -1.9D-06  0.00011  0.00011  0.00092  0.00135     15.6
@    2     -99.68919310 -1.9D-06  0.00011  0.00011  0.00092  0.00135     15.6

 Output coordinates in angstroms (scale by  1.889725989 to convert to a.u.)

  No.       Tag          Charge          X              Y              Z
 ---- ---------------- ---------- -------------- -------------- --------------
    1 F                    9.0000     0.10725104    -0.01367344     0.06595225
    2 H                    1.0000    -0.74353584     0.09479344    -0.45722505

 Total times  cpu:       13.9s     wall:       15.6s
