============================== echo of input deck ==============================
echo

start molecule

title "HF | Equilibrium Geometry | B3LYP/daug-cc-pVDZ"
charge 0

print low

geometry units angstroms print xyz autosym
F     -7.495632    1.264070   -0.005417
H     -8.290988    1.365470   -0.494508
end

basis
  * library d-aug-cc-pvdz
end

dft
  xc b3lyp
  mult 1
end

task dft optimize
================================================================================

         Total DFT energy =     -100.462831039810
@ Step       Energy      Delta E   Gmax     Grms     Xrms     Xmax   Walltime
@ ---- ---------------- -------- -------- -------- -------- -------- --------
@    0    -100.46283104  0.0D+00  0.01526  0.01526  0.00000  0.00000      1.2
         Total DFT energy =     -100.462902314297
         Total DFT energy =     -100.463037639533
@    1    -100.46303764 -2.1D-04  0.00016  0.00016  0.00761  0.01318      1.4
         Total DFT energy =     -100.463037660785
         Total DFT energy =   -100.463037660785
@    2    -100.46303766 -2.1D-08  0.00000  0.00000  0.00008  0.00014      1.6
@    2    -100.46303766 -2.1D-08  0.00000  0.00000  0.00008  0.00014      1.6

 Output coordinates in angstroms (scale by  1.889725989 to convert to a.u.)

  No.       Tag          Charge          X              Y              Z
 ---- ---------------- ---------- -------------- -------------- --------------
    1 F                    9.0000     0.00000000     0.00000000     0.08686977
    2 H                    1.0000     0.00000000     0.00000000    -0.83822402

 Total times  cpu:        0.6s     wall:        1.6s
