============================== echo of input deck ==============================
echo

start molecule

title "HF | Equilibrium Geometry | CCSD/daug-cc-pVDZ"
charge 0

print low

geometry units angstroms print xyz autosym
F     -7.495632    1.264070   -0.005417
H     -8.290988    1.365470   -0.494508
end

basis
  * library d-aug-cc-pvdz
end

scf
  print low
end

ccsd
  freeze core
  thresh 1.0e-7
end

task ccsd optimize
================================================================================

         Total SCF energy =   -100.033138729823
         Total SCF energy =   -100.032419793598
         Total SCF energy =   -100.033750107277
@ Step       Energy      Delta E   Gmax     Grms     Xrms     Xmax   Walltime
@ ---- ---------------- -------- -------- -------- -------- -------- --------
@    0    -100.27038924  0.0D+00  0.02031  0.02031  0.00000  0.00000      1.6
         Total SCF energy =   -100.034944956109
         Total SCF energy =   -100.034439098362
         Total SCF energy =   -100.033997175737
         Total SCF energy =   -100.034757147920
@    1    -100.27075840 -3.7D-04  0.00022  0.00022  0.01007  0.01745      3.8
         Total SCF energy =   -100.034449583300
         Total SCF energy =   -100.034449583300
         Total SCF energy =   -100.034010989913
         Total SCF energy =   -100.034764109368
@    2    -100.27075847 -7.5D-08  0.00002  0.00002  0.00011  0.00020      5.5
@    2    -100.27075847 -7.5D-08  0.00002  0.00002  0.00011  0.00020      5.5

 Output coordinates in angstroms (scale by  1.889725989 to convert to a.u.)

  No.       Tag          Charge          X              Y              Z
 ---- ---------------- ---------- -------------- -------------- --------------
    1 F                    9.0000     0.00000000     0.00000000     0.08458339
    2 H                    1.0000     0.00000000     0.00000000    -0.83593764

 Total times  cpu:        4.9s     wall:        5.5s
