============================== echo of input deck ==============================
echo

start molecule

title "HF | Equilibrium Geometry | B3LYP/daug-cc-pVDZ"
charge 0

print low

geometry units angstroms print xyz autosym
F     -7.495632    1.264070   -0.005417
H     -8.290988    1.365470   -0.494508
end

basis
  * library d-aug-cc-pvdz
end

scf
  print low
end

mp2
  print low
end

task mp2 optimize
================================================================================

         Total SCF energy =   -100.033138729823
          Total MP2 energy          -100.267402576110
@ Step       Energy      Delta E   Gmax     Grms     Xrms     Xmax   Walltime
@ ---- ---------------- -------- -------- -------- -------- -------- --------
@    0    -100.26740258  0.0D+00  0.01724  0.01724  0.00000  0.00000      0.5
         Total SCF energy =   -100.034833925685
          Total MP2 energy          -100.267493656871
         Total SCF energy =   -100.034293482640
          Total MP2 energy          -100.267667641663
@    1    -100.26766764 -2.7D-04  0.00022  0.00022  0.00860  0.01489      1.1
         Total SCF energy =   -100.034304873879
          Total MP2 energy          -100.267667677309
         Total SCF energy =   -100.034304873879
          Total MP2 energy          -100.267667677309
@    2    -100.26766768 -3.6D-08  0.00001  0.00001  0.00011  0.00019      1.5
@    2    -100.26766768 -3.6D-08  0.00001  0.00001  0.00011  0.00019      1.5

 Output coordinates in angstroms (scale by  1.889725989 to convert to a.u.)

  No.       Tag          Charge          X              Y              Z
 ---- ---------------- ---------- -------------- -------------- --------------
    1 F                    9.0000     0.00000000     0.00000000     0.08593704
    2 H                    1.0000     0.00000000     0.00000000    -0.83729129

 Total times  cpu:        1.3s     wall:        1.5s
