============================== echo of input deck ==============================
echo

start molecule

title "BF3 | Equilibrium Geometry | B3LYP/6-31G(d)"
charge 0

print low

geometry units angstroms print xyz autosym
B     -3.405764    0.080870   -0.561701
F     -4.182413    0.858108   -0.613469
F     -3.922955   -0.841549   -0.864469
F     -2.319600    0.221784   -0.459450
end

basis
  * library 6-31G*
end

dft
  xc b3lyp
  mult 1
end

task dft optimize
task dft freq
================================================================================

         Total DFT energy =     -324.290187261973
@ Step       Energy      Delta E   Gmax     Grms     Xrms     Xmax   Walltime
@ ---- ---------------- -------- -------- -------- -------- -------- --------
@    0    -324.29018726  0.0D+00  0.52311  0.25039  0.00000  0.00000      0.6
         Total DFT energy =     -324.536202833498
         Total DFT energy =   -324.536202833498
@    1    -324.53620283 -2.5D-01  0.08427  0.04001  0.16066  0.34157      1.1
         Total DFT energy =     -324.548558386961
         Total DFT energy =     -324.552283603650
@    2    -324.55228360 -1.6D-02  0.01510  0.00606  0.07587  0.17754      1.9
         Total DFT energy =     -324.552866849517
         Total DFT energy =     -324.552908995209
@    3    -324.55290900 -6.3D-04  0.00357  0.00139  0.01448  0.03387      2.6
         Total DFT energy =     -324.553003754314
         Total DFT energy =     -324.553181776742
@    4    -324.55318178 -2.7D-04  0.00310  0.00130  0.01027  0.03008      3.2
         Total DFT energy =     -324.553238447627
         Total DFT energy =   -324.553238447627
@    5    -324.55323845 -5.7D-05  0.00094  0.00038  0.00563  0.01557      3.6
         Total DFT energy =     -324.553240307495
         Total DFT energy =   -324.553240307495
@    6    -324.55324031 -1.9D-06  0.00030  0.00013  0.00083  0.00181      3.9
         Total DFT energy =     -324.553240523600
         Total DFT energy =   -324.553240523600
@    7    -324.55324052 -2.2D-07  0.00003  0.00001  0.00021  0.00045      4.2
@    7    -324.55324052 -2.2D-07  0.00003  0.00001  0.00021  0.00045      4.2

 Output coordinates in angstroms (scale by  1.889725989 to convert to a.u.)

  No.       Tag          Charge          X              Y              Z
 ---- ---------------- ---------- -------------- -------------- --------------
    1 B                    5.0000     0.00044736    -0.00767778     0.00676886
    2 F                    9.0000     1.13078925     0.66962568     0.00820327
    3 F                    9.0000    -1.15118387     0.63275353     0.00872558
    4 F                    9.0000     0.02173847    -1.32520655     0.00341141

         Total DFT energy =     -324.553239783828
 Zero-Point correction to Energy  =    7.876 kcal/mol  (  0.012551 au)
 Thermal correction to Energy     =   10.070 kcal/mol  (  0.016047 au)
 Thermal correction to Enthalpy   =   10.662 kcal/mol  (  0.016991 au)
 Total Entropy                    =   64.374 cal/mol-K
   - Translational                =   38.551 cal/mol-K (mol. weight =  68.0045)
   - Rotational                   =   23.905 cal/mol-K (symmetry #  =        1)
   - Vibrational                  =    1.917 cal/mol-K
   - Translational                  =    2.979 cal/mol-K
   - Rotational                     =    2.979 cal/mol-K
   - Vibrational                    =    4.118 cal/mol-K
 P.Frequency       -0.00       -0.00       -0.00       -0.00       -0.00        0.00
 P.Frequency      479.38      479.42      684.79      889.48     1489.40     1489.56

 Normal Eigenvalue ||           Projected Infra Red Intensities
  Mode   [cm**-1]  || [atomic units] [(debye/angs)**2] [(KM/mol)] [arbitrary]
 ------ ---------- || -------------- ----------------- ---------- -----------
    1       -0.000 ||    0.000000           0.000         0.000       0.000
    2       -0.000 ||    0.000000           0.000         0.000       0.000
    3       -0.000 ||    0.000000           0.000         0.000       0.000
    4       -0.000 ||    0.000000           0.000         0.000       0.000
    5       -0.000 ||    0.000000           0.000         0.000       0.000
    6        0.000 ||    0.000000           0.000         0.000       0.000
    7      479.375 ||    0.011087           0.256        10.808       1.487
    8      479.418 ||    0.011088           0.256        10.809       1.487
    9      684.791 ||    0.088151           2.034        85.934      11.821
   10      889.481 ||    0.000000           0.000         0.000       0.000
   11     1489.402 ||    0.392251           9.050       382.385      52.601
   12     1489.558 ||    0.392284           9.050       382.417      52.605
 ----------------------------------------------------------------------------

 Total times  cpu:       10.7s     wall:       11.8s
