============================== echo of input deck ==============================
echo

start molecule

title "CO2 | Equilibrium Geometry | B3LYP/6-31G(d,p)"
charge 0

print low

geometry units angstroms print xyz autosym
C     -4.243288   -3.698893    2.201210
O     -3.470945   -3.016444    1.593952
O     -5.015851   -4.381509    2.808045
end

basis
  * library 6-31G**
end

dft
  xc b3lyp
  mult 1
end

task dft optimize
task dft freq
================================================================================

         Total DFT energy =     -188.578133434492
@ Step       Energy      Delta E   Gmax     Grms     Xrms     Xmax   Walltime
@ ---- ---------------- -------- -------- -------- -------- -------- --------
@    0    -188.57813343  0.0D+00  0.05307  0.02502  0.00000  0.00000      0.3
         Total DFT energy =     -188.580911891569
         Total DFT energy =     -188.580934128725
@    1    -188.58093413 -2.8D-03  0.00234  0.00110  0.02510  0.05326      0.6
         Total DFT energy =     -188.580938833235
         Total DFT energy =   -188.580938833235
@    2    -188.58093883 -4.7D-06  0.00023  0.00011  0.00106  0.00225      0.8
         Total DFT energy =     -188.580938898227
         Total DFT energy =   -188.580938898227
@    3    -188.58093890 -6.5D-08  0.00000  0.00000  0.00010  0.00020      0.9
@    3    -188.58093890 -6.5D-08  0.00000  0.00000  0.00010  0.00020      0.9

 Output coordinates in angstroms (scale by  1.889725989 to convert to a.u.)

  No.       Tag          Charge          X              Y              Z
 ---- ---------------- ---------- -------------- -------------- --------------
    1 C                    6.0000     0.00000000     0.00000000     0.00000000
    2 O                    8.0000     0.00000000     0.00000000     1.16915941
    3 O                    8.0000     0.00000000     0.00000000    -1.16915941

         Total DFT energy =     -188.580939236330
 Zero-Point correction to Energy  =    7.270 kcal/mol  (  0.011586 au)
 Thermal correction to Energy     =    8.931 kcal/mol  (  0.014232 au)
 Thermal correction to Enthalpy   =    9.523 kcal/mol  (  0.015176 au)
 Total Entropy                    =   51.142 cal/mol-K
   - Translational                =   37.253 cal/mol-K (mol. weight =  43.9898)
   - Rotational                   =   13.098 cal/mol-K (symmetry #  =        2)
   - Vibrational                  =    0.791 cal/mol-K
   - Translational                  =    2.979 cal/mol-K
   - Rotational                     =    1.986 cal/mol-K
   - Vibrational                    =    2.014 cal/mol-K
 P.Frequency       -0.00       -0.00       -0.00       -0.00       -0.00      640.03
 P.Frequency      640.03     1371.97     2436.17

 Normal Eigenvalue ||           Projected Infra Red Intensities
  Mode   [cm**-1]  || [atomic units] [(debye/angs)**2] [(KM/mol)] [arbitrary]
 ------ ---------- || -------------- ----------------- ---------- -----------
    1       -0.000 ||    0.000000           0.000         0.000       0.000
    2       -0.000 ||    0.000000           0.000         0.000       0.000
    3       -0.000 ||    0.000000           0.000         0.000       0.000
    4       -0.000 ||    0.000000           0.000         0.000       0.000
    5       -0.000 ||    0.000000           0.000         0.000       0.000
    6      640.031 ||    0.031510           0.727        30.718       4.553
    7      640.031 ||    0.031510           0.727        30.718       4.553
    8     1371.965 ||    0.000000           0.000         0.000       0.000
    9     2436.174 ||    0.559872          12.917       545.791      80.894
 ----------------------------------------------------------------------------

 Total times  cpu:        3.5s     wall:        3.9s
