============================== echo of input deck ==============================
echo

start molecule

title "BeCl2 | Equilibrium Geometry | B3LYP/6-31G(d)"
charge 0

print low

geometry units angstroms print xyz autosym
Be    -0.697491    1.128208    0.000000
Cl    -2.410908   -0.046133   -0.000000
Cl     0.980802   -0.095806    0.000000
end

basis
  * library 6-31G*
end

dft
  xc b3lyp
  mult 1
end

task dft optimize
================================================================================

         Total DFT energy =     -935.220390550341
@ Step       Energy      Delta E   Gmax     Grms     Xrms     Xmax   Walltime
@ ---- ---------------- -------- -------- -------- -------- -------- --------
@    0    -935.22039055  0.0D+00  0.05260  0.04834  0.00000  0.00000      1.5
         Total DFT energy =     -935.251037654255
         Total DFT energy =     -935.251943938178
@    1    -935.25194394 -3.2D-02  0.11329  0.09339  0.40000  0.96727      2.1
         Total DFT energy =     -935.280522451413
         Total DFT energy =     -935.281798192963
@    2    -935.28179819 -3.0D-02  0.02175  0.01991  0.11685  0.20991      2.7
         Total DFT energy =     -935.288322611278
         Total DFT energy =     -935.293596050909
@    3    -935.29359605 -1.2D-02  0.00793  0.00752  0.22633  0.44299      3.3
         Total DFT energy =     -935.295167632011
         Total DFT energy =     -935.295509316120
@    4    -935.29550932 -1.9D-03  0.00287  0.00234  0.12555  0.30751      3.8
         Total DFT energy =     -935.295547912553
         Total DFT energy =     -935.295549062772
@    5    -935.29554906 -4.0D-05  0.00016  0.00016  0.00892  0.01595      4.3
         Total DFT energy =     -935.295550132841
         Total DFT energy =   -935.295550132841
@    6    -935.29555013 -1.1D-06  0.00001  0.00001  0.00282  0.00684      4.6
         Total DFT energy =     -935.295550146615
         Total DFT energy =   -935.295550146615
@    7    -935.29555015 -1.4D-08  0.00000  0.00000  0.00008  0.00019      4.8
@    7    -935.29555015 -1.4D-08  0.00000  0.00000  0.00008  0.00019      4.8

 Output coordinates in angstroms (scale by  1.889725989 to convert to a.u.)

  No.       Tag          Charge          X              Y              Z
 ---- ---------------- ---------- -------------- -------------- --------------
    1 Be                   4.0000     0.00000000     0.00000000     0.27356843
    2 Cl                  17.0000     1.80267182     0.00000000     0.27350471
    3 Cl                  17.0000    -1.80267182     0.00000000     0.27350471

 Total times  cpu:        3.3s     wall:        4.8s
