============================== echo of input deck ==============================
echo

start molecule

title "HF | Equilibrium Geometry | B3LYP/6-31G(d)"
charge 0

print low

geometry units angstroms print xyz autosym
F     -7.495632    1.264070   -0.005417
H     -8.290988    1.365470   -0.494508
end

basis
  * library 6-31G*
end

dft
  xc b3lyp
  mult 1
end

property
  dipole
  response
end

task dft optimize
task dft freq
task dft property
================================================================================

         Total DFT energy =     -100.420141887129
@ Step       Energy      Delta E   Gmax     Grms     Xrms     Xmax   Walltime
@ ---- ---------------- -------- -------- -------- -------- -------- --------
@    0    -100.42014189  0.0D+00  0.00574  0.00574  0.00000  0.00000      0.1
         Total DFT energy =     -100.420171409230
         Total DFT energy =   -100.420171409230
@    1    -100.42017141 -3.0D-05  0.00000  0.00000  0.00295  0.00511      0.2
@    1    -100.42017141 -3.0D-05  0.00000  0.00000  0.00295  0.00511      0.2

 Output coordinates in angstroms (scale by  1.889725989 to convert to a.u.)

  No.       Tag          Charge          X              Y              Z
 ---- ---------------- ---------- -------------- -------------- --------------
    1 F                    9.0000     0.00000000     0.00000000     0.09121349
    2 H                    1.0000     0.00000000     0.00000000    -0.84256774

         Total DFT energy =     -100.420171603744
 Zero-Point correction to Energy  =    5.682 kcal/mol  (  0.009054 au)
 Thermal correction to Energy     =    7.162 kcal/mol  (  0.011414 au)
 Thermal correction to Enthalpy   =    7.754 kcal/mol  (  0.012357 au)
 Total Entropy                    =   41.517 cal/mol-K
   - Translational                =   34.906 cal/mol-K (mol. weight =  20.0062)
   - Rotational                   =    6.611 cal/mol-K (symmetry #  =        1)
   - Vibrational                  =    0.000 cal/mol-K
   - Translational                  =    2.979 cal/mol-K
   - Rotational                     =    1.986 cal/mol-K
   - Vibrational                    =    0.000 cal/mol-K
 P.Frequency       -0.00       -0.00       -0.00        0.00        0.00     3976.27

 Normal Eigenvalue ||           Projected Infra Red Intensities
  Mode   [cm**-1]  || [atomic units] [(debye/angs)**2] [(KM/mol)] [arbitrary]
 ------ ---------- || -------------- ----------------- ---------- -----------
    1       -0.000 ||    0.000000           0.000         0.000       0.000
    2       -0.000 ||    0.129071           2.978       125.825      18.311
    3       -0.000 ||    0.116354           2.684       113.427      16.507
    4        0.000 ||    0.063231           1.459        61.641       8.970
    5        0.000 ||    0.050514           1.165        49.243       7.166
    6     3976.272 ||    0.063769           1.471        62.165       9.047
 ----------------------------------------------------------------------------

         Total DFT energy =     -100.420171600931
 Total times  cpu:        1.0s     wall:        1.1s
